#
# Entries have this format:
#
#	Machine-Name Time Type Class Phone Login
#
# Machine-Name		node name of the remote machine
# Time			day-of-week and time-of-day when you may call
#			(e.g., MoTuTh0800-1700). Use "Any" for any day.
#			Use "Never" for machines that poll you, but that
#			you never call directly.
# Type			device type
# Class			transfer speed
# Phone			phone number (for autodialers) or token (for
#			data switches)
# Login			login sequence is composed of fields and subfields
#			in the format "[expect send] ...".  The expect field
#			may have subfields in the format "expect[-send-expect]".
#
# Example:
#	cuuxb Any ACU 1200 chicago8101242 in:--in: nuucp word: panzer
#
#SYSTEM Any Direct 2400 "" "" atm0dtPHONE_NUMBER CONNECT\0402400 \r ogin:--ogin:--ogin: LOGIN word: PASSWORD
sol Any Direct 9600 "" "" atm0dt7212839 CONNECT\0409600 \r ogin:--ogin:--ogin: LOGIN word: PASSWORD
